200
 Atoms. Timestep: 0
1 -7.45356 -7.45356 0
1 -6.7082 -6.7082 0
1 -5.96285 -7.45356 0
1 -5.21749 -6.7082 0
1 -4.47214 -7.45356 0
1 -3.72678 -6.7082 0
1 -2.98142 -7.45356 0
1 -2.23607 -6.7082 0
1 -1.49071 -7.45356 0
1 -0.745356 -6.7082 0
1 0 -7.45356 0
1 0.745356 -6.7082 0
1 1.49071 -7.45356 0
1 2.23607 -6.7082 0
1 2.98142 -7.45356 0
1 3.72678 -6.7082 0
1 4.47214 -7.45356 0
1 5.21749 -6.7082 0
1 5.96285 -7.45356 0
1 6.7082 -6.7082 0
1 -7.45356 -5.96285 0
1 -6.7082 -5.21749 0
1 -5.96285 -5.96285 0
1 -5.21749 -5.21749 0
1 -4.47214 -5.96285 0
1 -3.72678 -5.21749 0
1 -2.98142 -5.96285 0
1 -2.23607 -5.21749 0
1 -1.49071 -5.96285 0
1 -0.745356 -5.21749 0
1 0 -5.96285 0
1 0.745356 -5.21749 0
1 1.49071 -5.96285 0
1 2.23607 -5.21749 0
1 2.98142 -5.96285 0
1 3.72678 -5.21749 0
1 4.47214 -5.96285 0
1 5.21749 -5.21749 0
1 5.96285 -5.96285 0
1 6.7082 -5.21749 0
1 -7.45356 -4.47214 0
1 -6.7082 -3.72678 0
1 -5.96285 -4.47214 0
1 -5.21749 -3.72678 0
1 -4.47214 -4.47214 0
1 -3.72678 -3.72678 0
1 -2.98142 -4.47214 0
1 -2.23607 -3.72678 0
1 -1.49071 -4.47214 0
1 -0.745356 -3.72678 0
1 0 -4.47214 0
1 0.745356 -3.72678 0
1 1.49071 -4.47214 0
1 2.23607 -3.72678 0
1 2.98142 -4.47214 0
1 3.72678 -3.72678 0
1 4.47214 -4.47214 0
1 5.21749 -3.72678 0
1 5.96285 -4.47214 0
1 6.7082 -3.72678 0
1 -7.45356 -2.98142 0
1 -6.7082 -2.23607 0
1 -5.96285 -2.98142 0
1 -5.21749 -2.23607 0
1 -4.47214 -2.98142 0
1 -3.72678 -2.23607 0
1 -2.98142 -2.98142 0
1 -2.23607 -2.23607 0
1 -1.49071 -2.98142 0
1 -0.745356 -2.23607 0
1 0 -2.98142 0
1 0.745356 -2.23607 0
1 1.49071 -2.98142 0
1 2.23607 -2.23607 0
1 2.98142 -2.98142 0
1 3.72678 -2.23607 0
1 4.47214 -2.98142 0
1 5.21749 -2.23607 0
1 5.96285 -2.98142 0
1 6.7082 -2.23607 0
1 -7.45356 -1.49071 0
1 -6.7082 -0.745356 0
1 -5.96285 -1.49071 0
1 -5.21749 -0.745356 0
1 -4.47214 -1.49071 0
1 -3.72678 -0.745356 0
1 -2.98142 -1.49071 0
1 -2.23607 -0.745356 0
1 -1.49071 -1.49071 0
1 -0.745356 -0.745356 0
1 0 -1.49071 0
1 0.745356 -0.745356 0
1 1.49071 -1.49071 0
1 2.23607 -0.745356 0
1 2.98142 -1.49071 0
1 3.72678 -0.745356 0
1 4.47214 -1.49071 0
1 5.21749 -0.745356 0
1 5.96285 -1.49071 0
1 6.7082 -0.745356 0
1 -7.45356 0 0
1 -6.7082 0.745356 0
1 -5.96285 0 0
1 -5.21749 0.745356 0
1 -4.47214 0 0
1 -3.72678 0.745356 0
1 -2.98142 0 0
1 -2.23607 0.745356 0
1 -1.49071 0 0
1 -0.745356 0.745356 0
1 0 0 0
1 0.745356 0.745356 0
1 1.49071 0 0
1 2.23607 0.745356 0
1 2.98142 0 0
1 3.72678 0.745356 0
1 4.47214 0 0
1 5.21749 0.745356 0
1 5.96285 0 0
1 6.7082 0.745356 0
1 -7.45356 1.49071 0
1 -6.7082 2.23607 0
1 -5.96285 1.49071 0
1 -5.21749 2.23607 0
1 -4.47214 1.49071 0
1 -3.72678 2.23607 0
1 -2.98142 1.49071 0
1 -2.23607 2.23607 0
1 -1.49071 1.49071 0
1 -0.745356 2.23607 0
1 0 1.49071 0
1 0.745356 2.23607 0
1 1.49071 1.49071 0
1 2.23607 2.23607 0
1 2.98142 1.49071 0
1 3.72678 2.23607 0
1 4.47214 1.49071 0
1 5.21749 2.23607 0
1 5.96285 1.49071 0
1 6.7082 2.23607 0
1 -7.45356 2.98142 0
1 -6.7082 3.72678 0
1 -5.96285 2.98142 0
1 -5.21749 3.72678 0
1 -4.47214 2.98142 0
1 -3.72678 3.72678 0
1 -2.98142 2.98142 0
1 -2.23607 3.72678 0
1 -1.49071 2.98142 0
1 -0.745356 3.72678 0
1 0 2.98142 0
1 0.745356 3.72678 0
1 1.49071 2.98142 0
1 2.23607 3.72678 0
1 2.98142 2.98142 0
1 3.72678 3.72678 0
1 4.47214 2.98142 0
1 5.21749 3.72678 0
1 5.96285 2.98142 0
1 6.7082 3.72678 0
1 -7.45356 4.47214 0
1 -6.7082 5.21749 0
1 -5.96285 4.47214 0
1 -5.21749 5.21749 0
1 -4.47214 4.47214 0
1 -3.72678 5.21749 0
1 -2.98142 4.47214 0
1 -2.23607 5.21749 0
1 -1.49071 4.47214 0
1 -0.745356 5.21749 0
1 0 4.47214 0
1 0.745356 5.21749 0
1 1.49071 4.47214 0
1 2.23607 5.21749 0
1 2.98142 4.47214 0
1 3.72678 5.21749 0
1 4.47214 4.47214 0
1 5.21749 5.21749 0
1 5.96285 4.47214 0
1 6.7082 5.21749 0
1 -7.45356 5.96285 0
1 -6.7082 6.7082 0
1 -5.96285 5.96285 0
1 -5.21749 6.7082 0
1 -4.47214 5.96285 0
1 -3.72678 6.7082 0
1 -2.98142 5.96285 0
1 -2.23607 6.7082 0
1 -1.49071 5.96285 0
1 -0.745356 6.7082 0
1 0 5.96285 0
1 0.745356 6.7082 0
1 1.49071 5.96285 0
1 2.23607 6.7082 0
1 2.98142 5.96285 0
1 3.72678 6.7082 0
1 4.47214 5.96285 0
1 5.21749 6.7082 0
1 5.96285 5.96285 0
1 6.7082 6.7082 0
200
 Atoms. Timestep: 1000
1 -7.25904 -7.30034 0
1 -6.22785 -7.06933 0
1 -5.61486 7.02587 0
1 -4.98972 -7.06051 0
1 -4.06715 7.25509 0
1 -3.07742 -7.15144 0
1 -2.9379 6.6888 0
1 -2.13445 7.37728 0
1 -1.839 6.2157 0
1 -1.01867 7.03447 0
1 -0.0174536 7.24244 0
1 0.38429 -6.66541 0
1 1.16524 -7.43206 0
1 2.73953 -6.12363 0
1 3.35021 -6.8246 0
1 3.75954 -5.77311 0
1 4.56676 -6.45146 0
1 5.77828 -6.3444 0
1 6.23286 -7.25688 0
1 6.82407 -6.31687 0
1 -6.82728 -6.23959 0
1 -7.25496 -5.24539 0
1 -5.59204 -6.13794 0
1 -5.16237 -5.14541 0
1 -3.90349 -6.73879 0
1 -4.32524 -5.72649 0
1 -2.43631 -6.43068 0
1 -1.52941 -5.80446 0
1 -1.28453 -6.80951 0
1 -0.637687 -4.79093 0
1 -0.568443 -6.08373 0
1 0.447051 -5.66337 0
1 1.52143 -6.14225 0
1 1.11876 -4.85063 0
1 2.81878 -5.05318 0
1 3.75715 -4.57146 0
1 4.55571 -5.22461 0
1 4.92751 -4.20931 0
1 5.52699 -5.07607 0
1 6.48656 -5.35956 0
1 7.12449 -4.18265 0
1 -6.75298 -4.21421 0
1 -6.26906 -5.2161 0
1 -5.6106 -4.10417 0
1 -3.68238 -4.85749 0
1 -3.08115 -3.77756 0
1 -3.26656 -5.84095 0
1 -2.54033 -5.24291 0
1 -1.56332 -4.69339 0
1 0.139138 -3.21347 0
1 0.170553 -4.27128 0
1 1.03427 -2.42221 0
1 1.29629 -3.70806 0
1 2.08144 -4.27601 0
1 3.00546 -3.84281 0
1 3.26837 -2.75586 0
1 4.09732 -3.62057 0
1 5.46204 -3.37142 0
1 6.16898 -4.31114 0
1 6.60595 -3.37187 0
1 -7.32377 -3.28441 0
1 -6.95858 -2.38583 0
1 -6.21551 -3.19017 0
1 -5.07771 -3.083 0
1 -4.35618 -4.06745 0
1 -4.03039 -3.01728 0
1 -2.00632 -3.69266 0
1 -1.84685 -2.63807 0
1 -0.894075 -3.74173 0
1 -0.818974 -2.18959 0
1 0.209271 -1.8842 0
1 0.518044 -0.712368 0
1 2.10183 -3.13323 0
1 1.29667 -1.44871 0
1 2.30483 -2.16909 0
1 3.94425 -1.95791 0
1 4.68438 -2.65191 0
1 4.86963 -1.57797 0
1 5.72396 -2.2933 0
1 6.91975 -2.21276 0
1 -7.4227 -1.2389 0
1 -6.47163 -1.53137 0
1 -5.83929 -2.24875 0
1 -5.53631 -1.15823 0
1 -4.61985 -2.04823 0
1 -3.59922 -1.6267 0
1 -3.04778 -2.62349 0
1 -2.46666 -1.5426 0
1 -1.44246 -1.25388 0
1 -0.244224 0.0207606 0
1 -0.473437 -1.01943 0
1 0.921354 0.318751 0
1 1.59015 -0.480368 0
1 2.6142 -0.0921445 0
1 2.30233 -1.15666 0
1 3.29692 -1.18821 0
1 4.35532 -0.69109 0
1 5.49744 -0.754991 0
1 6.36037 -1.39468 0
1 6.43627 -0.302568 0
1 -7.33025 0.0443223 0
1 -6.90089 1.29244 0
1 -6.32216 -0.514109 0
1 -5.29546 -0.123878 0
1 -4.39422 -0.907429 0
1 -4.20878 0.0522811 0
1 -3.31107 -0.557804 0
1 -2.20502 -0.539075 0
1 -1.24673 -0.140151 0
1 -0.945725 0.965756 0
1 0.122715 1.00665 0
1 1.09363 1.40459 0
1 1.89942 0.714531 0
1 3.10763 0.975789 0
1 3.61735 -0.0645343 0
1 4.15708 1.05963 0
1 4.70149 0.190016 0
1 5.19626 1.28527 0
1 5.64888 0.3742 0
1 6.6897 0.757385 0
1 7.13181 1.8098 0
1 -6.80649 2.3812 0
1 -6.07716 0.587782 0
1 -5.84114 1.69664 0
1 -4.90316 0.855121 0
1 -3.74114 0.890402 0
1 -2.82907 0.329142 0
1 -2.76815 1.64823 0
1 -1.88608 0.824703 0
1 -1.76282 1.84598 0
1 -0.724321 2.14938 0
1 1.5323 2.5552 0
1 2.23568 1.69105 0
1 2.62556 2.80103 0
1 3.47205 1.92157 0
1 3.61392 3.00623 0
1 4.52397 2.2551 0
1 5.49208 2.63094 0
1 6.06814 1.71807 0
1 6.56891 2.89109 0
1 -7.32594 3.19714 0
1 -6.28979 3.59349 0
1 -5.80744 2.70436 0
1 -4.21238 3.97348 0
1 -4.43509 2.94466 0
1 -4.47992 1.84816 0
1 -3.62619 2.204 0
1 -2.43517 2.7684 0
1 -1.47008 3.07731 0
1 -0.457057 3.48604 0
1 0.253306 2.61752 0
1 0.613482 3.57739 0
1 1.66854 3.63225 0
1 2.16117 4.80502 0
1 2.70659 3.8814 0
1 3.71033 4.02567 0
1 4.61312 3.26224 0
1 4.99024 4.37869 0
1 5.87957 3.76593 0
1 6.86339 4.07477 0
1 -7.08202 4.29644 0
1 7.10164 5.12537 0
1 -5.75626 4.53243 0
1 -5.50496 5.63427 0
1 -5.23376 3.64577 0
1 -3.42926 3.21341 0
1 -2.29941 3.88068 0
1 -2.12389 4.9702 0
1 -1.31835 4.16714 0
1 -0.948615 5.26983 0
1 -0.0486029 4.50984 0
1 1.44173 5.58435 0
1 1.0682 4.55567 0
1 2.43625 5.82301 0
1 3.19575 5.12081 0
1 3.51608 6.1463 0
1 4.21651 5.29266 0
1 5.25137 5.43202 0
1 6.11532 4.85781 0
1 6.3563 5.96449 0
1 -7.28233 5.96896 0
1 -6.61717 6.79037 0
1 -6.60113 5.23193 0
1 -4.77444 6.32768 0
1 -4.74859 4.90474 0
1 -3.79961 6.15029 0
1 -3.09354 4.42334 0
1 -3.78477 5.14838 0
1 -2.81655 5.60069 0
1 -0.456625 6.20761 0
1 0.349989 5.54098 0
1 0.731803 6.48122 0
1 1.67571 6.56897 0
1 2.23109 -7.09521 0
1 3.02583 7.15664 0
1 4.04241 7.23487 0
1 4.51576 6.21196 0
1 5.18027 -7.18951 0
1 5.48963 6.75549 0
1 6.84616 6.84794 0
200
 Atoms. Timestep: 2000
1 7.14017 -6.95119 0
1 -6.46913 -7.01882 0
1 -5.05544 6.89501 0
1 -5.47435 -7.15298 0
1 -3.35265 6.31132 0
1 -3.07849 7.40467 0
1 -2.32698 6.52749 0
1 -2.1414 -7.33918 0
1 -1.56283 5.77644 0
1 -1.21036 7.05203 0
1 -0.267867 -7.43266 0
1 0.383171 -6.23987 0
1 0.87768 -7.42446 0
1 1.44439 -6.37963 0
1 3.30728 -6.95237 0
1 2.51348 -6.32561 0
1 4.32145 -6.53525 0
1 5.41114 -6.13624 0
1 6.14851 -6.98125 0
1 6.66875 -6.11429 0
1 -7.1264 -6.12448 0
1 7.13067 -5.19082 0
1 -5.87405 -6.22741 0
1 -5.16004 -5.24055 0
1 -4.2736 -7.20144 0
1 -4.86597 -6.34969 0
1 -2.56294 -6.23045 0
1 -2.45389 -4.40958 0
1 -1.47386 -6.55464 0
1 -0.853603 -4.71511 0
1 -1.7972 -5.32733 0
1 -0.747096 -5.79319 0
1 1.27142 -5.38872 0
1 0.242727 -5.23672 0
1 1.9026 -4.44358 0
1 2.481 -5.26454 0
1 3.56281 -5.85376 0
1 3.61089 -4.74236 0
1 4.53429 -5.56193 0
1 6.08383 -5.27548 0
1 6.75543 -4.05745 0
1 -7.11562 -4.24476 0
1 -6.55513 -5.31889 0
1 -5.97281 -4.40571 0
1 -4.24426 -5.52439 0
1 -3.55161 -4.48303 0
1 -3.55711 -6.35532 0
1 -3.04845 -5.38612 0
1 -1.30419 -3.82068 0
1 0.687759 -3.13945 0
1 -0.143001 -4.04615 0
1 1.48563 -2.39812 0
1 0.920189 -4.36637 0
1 1.78925 -3.45286 0
1 2.82421 -4.05462 0
1 3.39638 -2.10638 0
1 3.74048 -3.46927 0
1 4.59783 -4.57827 0
1 5.64741 -4.37234 0
1 5.80399 -3.15128 0
1 7.24821 -3.23196 0
1 -7.05716 -2.3898 0
1 -6.52455 -3.41125 0
1 -5.39164 -3.34592 0
1 -4.71078 -4.20595 0
1 -4.14046 -3.36376 0
1 -3.10834 -3.61166 0
1 -2.19085 -3.2848 0
1 -0.315112 -2.91657 0
1 -1.24654 -2.59672 0
1 0.25639 -1.99409 0
1 1.27461 -0.337794 0
1 2.64472 -2.77787 0
1 1.14612 -1.43709 0
1 2.32548 -1.75783 0
1 4.28872 -2.59529 0
1 4.7675 -3.45638 0
1 6.11679 -1.42933 0
1 5.35997 -2.28767 0
1 6.41764 -2.44768 0
1 -7.1975 -0.711024 0
1 -6.49085 -1.43709 0
1 -5.87949 -2.37173 0
1 -5.32822 -1.29374 0
1 -4.68785 -2.36523 0
1 -2.41856 -2.22015 0
1 -3.45712 -2.54735 0
1 -1.75063 -1.49149 0
1 -0.729292 -1.64131 0
1 0.142245 0.178932 0
1 0.209025 -0.889382 0
1 1.19856 0.668731 0
1 2.40833 -0.479481 0
1 3.44781 0.14778 0
1 3.30171 -1.04048 0
1 4.25627 -1.48336 0
1 5.21547 -0.8896 0
1 6.14995 -0.369516 0
1 7.18711 -1.58576 0
1 7.10211 0.0941489 0
1 -6.81008 0.325112 0
1 -6.61939 1.44598 0
1 -6.00053 -0.406263 0
1 -4.95566 0.0492519 0
1 -3.85436 -1.58305 0
1 -3.91717 -0.394472 0
1 -2.82482 -1.23945 0
1 -1.92705 -0.321232 0
1 -0.904657 -0.317721 0
1 -0.793135 0.772689 0
1 0.247212 1.40467 0
1 1.37846 1.74937 0
1 2.52632 0.910546 0
1 3.45835 1.36791 0
1 4.29679 -0.458235 0
1 4.51104 0.948446 0
1 5.19811 0.194834 0
1 5.49021 1.50773 0
1 6.12425 0.730979 0
1 7.28183 1.2351 0
1 7.44198 2.28416 0
1 -6.29345 2.53599 0
1 -5.86109 0.720347 0
1 -5.52662 1.79113 0
1 -4.7628 1.07382 0
1 -3.58469 0.99907 0
1 -2.96202 -0.0214225 0
1 -2.58781 1.36148 0
1 -1.72679 0.64824 0
1 -1.60548 1.79125 0
1 -0.607105 2.02221 0
1 1.49759 2.72162 0
1 2.53781 1.93202 0
1 2.6296 3.003 0
1 3.55274 2.40683 0
1 3.61023 3.42688 0
1 4.45855 1.95912 0
1 5.56707 2.63521 0
1 6.41854 1.85275 0
1 6.63435 3.01685 0
1 -7.21519 3.24938 0
1 -6.22475 3.6143 0
1 -5.31621 2.96557 0
1 -3.80829 4.37591 0
1 -4.27178 3.25011 0
1 -4.46313 2.07393 0
1 -3.38347 2.17381 0
1 -2.42407 2.46365 0
1 -1.4176 2.7994 0
1 -0.284895 3.07879 0
1 0.472715 2.35919 0
1 0.677482 3.43838 0
1 1.85435 3.73649 0
1 2.08973 4.91426 0
1 2.78113 4.1205 0
1 4.04592 4.29662 0
1 4.50412 2.95598 0
1 5.03713 4.60097 0
1 5.94627 3.77568 0
1 7.01669 4.07697 0
1 -6.90632 4.43415 0
1 7.16103 5.1943 0
1 -5.90971 4.7321 0
1 -6.03791 6.66982 0
1 -5.0393 3.97856 0
1 -3.25845 3.11596 0
1 -2.21229 3.69702 0
1 -1.83751 4.73072 0
1 -1.01979 3.90056 0
1 -0.790259 4.93926 0
1 -0.0648914 4.1882 0
1 1.3474 5.66748 0
1 0.87612 4.48786 0
1 2.48183 5.98244 0
1 3.14458 5.06165 0
1 3.57437 6.17701 0
1 4.20513 5.3378 0
1 5.41267 5.58202 0
1 6.03762 4.73664 0
1 6.40882 6.01301 0
1 7.4367 6.16831 0
1 -7.01248 7.05103 0
1 -6.52639 5.78607 0
1 -4.42424 6.04838 0
1 -5.56387 5.82484 0
1 -3.63154 5.36838 0
1 -2.78988 4.50864 0
1 -4.8514 4.96303 0
1 -2.59773 5.50432 0
1 -0.576429 6.07029 0
1 0.231704 5.36568 0
1 0.382906 6.49053 0
1 1.72874 6.71633 0
1 2.12982 -7.2326 0
1 2.95435 7.00232 0
1 4.05793 7.3233 0
1 4.639 6.33707 0
1 5.09965 -7.38625 0
1 5.6074 6.64194 0
1 6.69007 6.99866 0
200
 Atoms. Timestep: 3000
1 -7.43994 -7.01344 0
1 -6.49333 -6.65182 0
1 -4.80918 -7.37476 0
1 -5.45282 -6.43093 0
1 -3.10202 6.48956 0
1 -2.854 -7.24357 0
1 -2.01777 6.87984 0
1 -1.56588 -7.20888 0
1 -1.42154 6.00444 0
1 -0.994727 6.8928 0
1 0.277425 7.01886 0
1 0.243862 -6.40743 0
1 1.00922 -7.25323 0
1 1.43477 -6.2666 0
1 3.29441 -7.00112 0
1 2.73701 -6.11946 0
1 4.61696 -6.66376 0
1 5.60093 -6.41877 0
1 6.0788 -7.39538 0
1 6.65103 -6.19274 0
1 -7.22473 -5.86342 0
1 6.92417 -5.12858 0
1 -6.0835 -5.69914 0
1 -5.00472 -5.45324 0
1 -3.75359 7.33808 0
1 -4.29422 -6.48412 0
1 -2.30927 -6.32911 0
1 -1.9184 -5.1923 0
1 -0.515689 -7.10944 0
1 -1.27941 -4.36594 0
1 -1.03129 -6.1325 0
1 -0.343874 -5.2048 0
1 0.776693 -5.44052 0
1 -0.0392776 -4.29383 0
1 1.77189 -5.1359 0
1 2.80658 -5.15867 0
1 3.72634 -5.79178 0
1 4.0877 -4.66511 0
1 4.82124 -5.58863 0
1 5.80804 -5.42893 0
1 6.16498 -4.20723 0
1 7.25286 -4.09854 0
1 -6.89243 -4.88458 0
1 -5.77273 -4.58509 0
1 -3.96388 -5.36178 0
1 -2.51917 -4.28302 0
1 -3.32484 -6.24187 0
1 -2.90565 -5.2864 0
1 -0.576776 -3.45458 0
1 0.968815 -2.4915 0
1 0.481508 -3.439 0
1 2.04457 -2.30244 0
1 1.08003 -4.23701 0
1 1.64866 -3.30098 0
1 2.52205 -4.11875 0
1 3.00808 -2.0665 0
1 4.58486 -3.71775 0
1 5.14087 -4.66263 0
1 5.65735 -3.24035 0
1 5.92132 -2.23144 0
1 6.64614 -3.04005 0
1 -7.30591 -2.94948 0
1 -6.57307 -3.73565 0
1 -5.33957 -3.58344 0
1 -4.64067 -4.44545 0
1 -3.51677 -4.48762 0
1 -2.82723 -3.24807 0
1 -1.85605 -3.47309 0
1 -0.101827 -2.46073 0
1 -1.12546 -2.5586 0
1 -0.21104 -1.08253 0
1 0.661506 -0.487149 0
1 2.8359 -3.22068 0
1 1.22404 -1.32064 0
1 2.32795 -1.28245 0
1 3.82016 -2.85029 0
1 4.818 -2.51233 0
1 6.28852 -1.32428 0
1 5.18358 -1.49101 0
1 7.02321 -2.01837 0
1 -6.3108 -1.02922 0
1 -6.61094 -2.08612 0
1 -5.96455 -2.814 0
1 -4.86086 -2.59813 0
1 -3.86092 -3.45056 0
1 -2.0912 -2.0555 0
1 -3.57099 -2.38972 0
1 -2.1493 -0.911128 0
1 -1.23045 -1.4833 0
1 -0.265766 0.0204537 0
1 -1.17568 -0.341327 0
1 1.09674 0.516733 0
1 1.6842 -0.463441 0
1 2.71172 -0.245387 0
1 3.36212 -1.16688 0
1 4.24982 -1.65392 0
1 4.28609 -0.562466 0
1 5.55535 -0.440899 0
1 -7.26491 -1.14422 0
1 6.62326 -0.318924 0
1 -7.10869 -0.137076 0
1 -6.64676 0.791929 0
1 -5.43585 -1.78604 0
1 -5.07723 -0.827588 0
1 -4.37153 -1.56874 0
1 -4.00724 -0.346984 0
1 -3.32743 -1.33289 0
1 -3.05034 -0.164051 0
1 -2.08166 0.115501 0
1 -0.963918 0.981456 0
1 0.186801 1.07781 0
1 1.24439 1.53404 0
1 2.09089 0.577047 0
1 2.81552 1.16433 0
1 3.46747 0.380789 0
1 4.04978 1.32974 0
1 4.70788 0.433126 0
1 5.35777 1.49823 0
1 5.93028 0.602088 0
1 7.10203 0.506853 0
1 -7.35948 1.50371 0
1 -6.02769 2.08323 0
1 -5.93401 -0.103899 0
1 -5.70796 1.13189 0
1 -4.89701 0.321265 0
1 -4.68632 1.39054 0
1 -3.70492 0.670236 0
1 -3.59884 1.63126 0
1 -2.6829 0.956837 0
1 -1.80875 1.74245 0
1 -0.68129 1.97407 0
1 1.49896 2.69369 0
1 2.21705 1.97503 0
1 2.64873 3.03502 0
1 3.33877 2.07532 0
1 3.77129 3.15424 0
1 4.36142 2.27441 0
1 5.47985 2.57289 0
1 6.38069 1.66013 0
1 6.55192 2.68044 0
1 -7.06258 2.89348 0
1 -6.62918 3.95611 0
1 -5.84071 3.23354 0
1 -3.89747 4.52664 0
1 -4.46183 3.54943 0
1 -5.11742 2.39676 0
1 -3.889 2.56146 0
1 -2.75349 2.39627 0
1 -1.44328 2.8294 0
1 -0.356002 3.09915 0
1 0.388569 2.10435 0
1 0.642999 3.45785 0
1 1.76236 3.80521 0
1 2.11016 4.8161 0
1 2.86771 4.10689 0
1 3.98282 4.17136 0
1 4.86813 3.41265 0
1 5.37024 4.37166 0
1 5.9703 3.5564 0
1 7.21388 3.77758 0
1 -6.46384 5.06167 0
1 7.35307 4.83069 0
1 -5.49303 5.31667 0
1 -5.79721 7.40312 0
1 -5.53785 4.27667 0
1 -3.29858 3.40746 0
1 -2.2049 3.52579 0
1 -1.77983 4.913 0
1 -1.19537 3.98563 0
1 -0.807137 5.06786 0
1 -0.162969 4.14156 0
1 1.61899 5.63004 0
1 0.992362 4.47631 0
1 2.69297 5.82009 0
1 3.52085 5.05832 0
1 3.79629 6.10702 0
1 4.53616 5.1028 0
1 5.64597 5.43467 0
1 6.3698 4.56412 0
1 6.77025 5.63285 0
1 -7.22553 5.98171 0
1 -6.74107 7.12816 0
1 -6.16448 6.15985 0
1 -4.1661 6.32776 0
1 -5.17884 6.47738 0
1 -3.50168 5.49516 0
1 -2.79164 4.45848 0
1 -4.53532 5.39127 0
1 -2.43534 5.71055 0
1 -0.309618 6.09889 0
1 0.202842 5.10854 0
1 0.742015 6.04979 0
1 1.55855 6.63378 0
1 2.18933 -7.22624 0
1 3.04794 6.92924 0
1 4.11002 7.24208 0
1 4.91027 6.33642 0
1 5.08058 7.37687 0
1 6.06676 6.37972 0
1 7.12752 6.7952 0
200
 Atoms. Timestep: 4000
1 7.19786 -6.83545 0
1 -6.47666 -6.77923 0
1 -4.68242 7.32567 0
1 -5.45972 -6.6844 0
1 -2.86058 6.59103 0
1 -2.5888 -7.29217 0
1 -1.864 6.75682 0
1 -1.27948 -7.17345 0
1 -1.21215 5.79586 0
1 -0.892139 6.76815 0
1 0.0466932 7.08411 0
1 0.232536 -5.91848 0
1 0.908087 -7.27855 0
1 1.49041 -6.30028 0
1 3.50336 -6.88316 0
1 2.6994 -6.11135 0
1 4.52132 -6.73046 0
1 5.62179 -6.35305 0
1 6.33673 -7.40326 0
1 6.12177 -5.49418 0
1 -7.14659 -5.9553 0
1 7.15441 -5.20026 0
1 -6.05996 -5.8736 0
1 -5.02958 -5.71892 0
1 -3.55359 7.44082 0
1 -4.18427 -6.58577 0
1 -2.12431 -6.39526 0
1 -1.60323 -5.27097 0
1 -0.141469 -6.81991 0
1 -1.16861 -4.15139 0
1 -0.970104 -6.13594 0
1 -0.595104 -5.09447 0
1 0.973374 -5.3091 0
1 0.061669 -4.2452 0
1 1.98321 -5.24384 0
1 2.38373 -4.16218 0
1 3.8053 -5.81206 0
1 3.60339 -3.67957 0
1 4.8787 -5.55489 0
1 5.40674 -4.58943 0
1 6.47904 -4.45224 0
1 -7.45246 -4.14845 0
1 -6.71106 -4.92349 0
1 -5.60191 -4.80093 0
1 -3.76187 -5.55661 0
1 -2.16077 -4.40096 0
1 -3.15498 -6.34969 0
1 -2.5565 -5.40109 0
1 -0.72266 -3.25981 0
1 0.876645 -2.29817 0
1 0.50416 -3.33493 0
1 2.23629 -2.19457 0
1 1.16964 -4.07078 0
1 1.63151 -3.01918 0
1 3.19954 -5.0245 0
1 3.27984 -2.0241 0
1 4.63864 -3.77938 0
1 4.17106 -4.77084 0
1 5.82639 -3.71025 0
1 6.24409 -2.46662 0
1 6.79875 -3.23852 0
1 -7.08442 -3.08233 0
1 -6.18908 -3.91939 0
1 -5.16094 -3.7594 0
1 -4.46575 -4.68925 0
1 -3.43174 -4.44426 0
1 -2.8766 -3.47042 0
1 -1.87837 -3.29223 0
1 -0.123082 -2.29048 0
1 -1.46876 -2.36822 0
1 -0.489329 -1.24757 0
1 0.661967 -0.868518 0
1 2.61158 -3.1479 0
1 1.51008 -1.42717 0
1 2.62703 -1.2056 0
1 4.07349 -2.76674 0
1 5.22103 -2.82421 0
1 6.55377 -1.29602 0
1 5.46812 -1.79414 0
1 7.24125 -2.20736 0
1 -6.28145 -0.928369 0
1 -6.5486 -1.95949 0
1 -5.87807 -2.84988 0
1 -4.68615 -2.78953 0
1 -3.99907 -3.60193 0
1 -2.48614 -2.36438 0
1 -3.64242 -2.70279 0
1 -2.92764 -0.45635 0
1 -2.05281 -1.4107 0
1 -0.10702 -0.0510291 0
1 -1.42116 -0.560862 0
1 0.78686 0.262213 0
1 1.71284 -0.421255 0
1 2.76881 -0.157426 0
1 3.60252 -0.876148 0
1 4.44303 -1.80414 0
1 4.75515 -0.780507 0
1 5.82244 -0.566763 0
1 -7.33603 -1.18357 0
1 6.82902 -0.266724 0
1 -6.92742 -0.140758 0
1 -6.31635 0.92533 0
1 -5.49401 -1.67492 0
1 -5.16792 -0.707211 0
1 -4.3515 -1.67711 0
1 -4.0024 -0.489573 0
1 -3.25771 -1.50441 0
1 -3.32124 0.474969 0
1 -2.08734 0.457314 0
1 -0.996891 0.54347 0
1 0.0201419 1.00606 0
1 0.888918 1.29519 0
1 1.99758 0.671962 0
1 3.21708 0.916925 0
1 3.91443 0.046739 0
1 4.24973 1.03352 0
1 5.09035 0.230211 0
1 5.27813 1.57668 0
1 6.16531 0.585628 0
1 7.31502 0.666154 0
1 -7.00267 1.69401 0
1 -5.98481 2.07089 0
1 -5.80748 0.0904373 0
1 -5.32796 1.11361 0
1 -4.59758 0.326378 0
1 -4.80541 2.06583 0
1 -4.20254 1.27267 0
1 -3.79775 2.28502 0
1 -3.13393 1.46928 0
1 -2.07627 1.48271 0
1 -0.991185 1.74765 0
1 1.33996 2.39285 0
1 2.32595 1.69962 0
1 2.44249 2.76711 0
1 3.35925 2.04129 0
1 3.57147 2.98922 0
1 4.43297 2.26345 0
1 5.52825 2.71861 0
1 6.44372 1.70862 0
1 6.70609 2.83745 0
1 -7.20846 2.72903 0
1 -7.1884 3.77426 0
1 -6.26065 3.18544 0
1 -3.80851 4.36702 0
1 -5.00269 4.4634 0
1 -5.31853 2.85648 0
1 -4.4878 3.48674 0
1 -2.61583 2.40096 0
1 -1.56925 2.80071 0
1 -0.56673 2.82227 0
1 0.204839 2.03134 0
1 0.566746 3.11606 0
1 1.66068 3.48363 0
1 2.04409 4.44859 0
1 2.93798 3.79319 0
1 3.84354 4.36192 0
1 4.65297 3.40368 0
1 5.05224 4.45378 0
1 5.65282 3.68431 0
1 6.6822 3.83398 0
1 -6.53836 5.2897 0
1 7.36526 4.72878 0
1 -5.48495 5.30287 0
1 -5.92523 7.34426 0
1 -6.11447 4.29519 0
1 -3.4767 3.2133 0
1 -2.43907 3.47989 0
1 -1.70915 4.78525 0
1 -1.16875 3.82926 0
1 -0.589168 4.93488 0
1 -0.0665709 4.03573 0
1 1.47799 5.32075 0
1 0.918751 4.18767 0
1 2.44547 5.92127 0
1 2.9719 4.96396 0
1 3.68965 6.14876 0
1 4.27782 5.30826 0
1 5.36372 5.5886 0
1 6.05068 4.68622 0
1 6.7106 5.5682 0
1 -7.09743 6.04963 0
1 -6.93571 7.15067 0
1 -6.01813 6.17868 0
1 -3.97354 6.35162 0
1 -5.04397 6.30536 0
1 -3.27522 5.4772 0
1 -2.87096 4.4879 0
1 -4.30581 5.35206 0
1 -2.2504 5.7466 0
1 -0.0985471 5.95905 0
1 0.437766 5.0893 0
1 0.853653 6.30704 0
1 1.73248 6.79133 0
1 2.19018 -7.12306 0
1 2.95378 7.05364 0
1 4.06534 7.11885 0
1 4.80901 6.45975 0
1 5.29622 -7.44572 0
1 5.88381 6.49416 0
1 6.94774 6.56249 0
200
 Atoms. Timestep: 5000
1 7.1263 -7.15816 0
1 -6.55999 -6.84256 0
1 -4.39281 7.11797 0
1 -4.96922 -6.60738 0
1 -2.68503 6.46955 0
1 -2.37353 -7.37387 0
1 -1.62691 6.51076 0
1 -1.28548 7.43425 0
1 -0.977046 5.59304 0
1 -0.517432 6.66039 0
1 0.512944 6.88099 0
1 0.144269 -6.08405 0
1 0.974379 -7.06082 0
1 1.14259 -6.05935 0
1 3.05821 -6.61239 0
1 2.18994 -5.89806 0
1 4.16056 -6.34828 0
1 5.27735 -6.17381 0
1 6.0798 7.25576 0
1 5.69316 -5.17189 0
1 6.3011 -6.50779 0
1 6.82077 -4.99601 0
1 -7.4317 -5.74514 0
1 -5.89605 -6.04307 0
1 -3.4601 7.33579 0
1 -3.96245 -6.735 0
1 -1.93743 -6.40153 0
1 -1.61232 -5.47169 0
1 -0.096348 -7.20647 0
1 -1.34311 -4.26567 0
1 -0.835402 -6.37575 0
1 -0.581919 -5.16834 0
1 0.5499 -5.17369 0
1 -0.0823154 -4.19704 0
1 1.65811 -5.01078 0
1 1.98305 -4.00763 0
1 3.5406 -5.53444 0
1 2.99525 -3.78162 0
1 4.64701 -5.302 0
1 5.03466 -4.26772 0
1 6.17549 -4.2213 0
1 -7.33036 -4.27017 0
1 -6.54822 -5.05811 0
1 -5.51915 -5.00043 0
1 -3.94639 -5.78633 0
1 -2.6651 -4.1768 0
1 -2.95724 -6.45104 0
1 -2.73887 -5.47664 0
1 -0.910915 -3.32344 0
1 0.703917 -2.1379 0
1 0.23384 -3.15863 0
1 1.70415 -2.00222 0
1 0.976622 -4.20704 0
1 1.51431 -3.04588 0
1 2.79612 -4.84246 0
1 3.14593 -1.83494 0
1 4.61193 -3.22589 0
1 3.90181 -4.35063 0
1 5.62431 -3.2497 0
1 6.23794 -2.37543 0
1 6.83578 -3.33468 0
1 -6.96914 -3.15142 0
1 -6.27223 -3.934 0
1 -5.12207 -3.78529 0
1 -4.42092 -4.6581 0
1 -3.44162 -4.76996 0
1 -3.04931 -3.0684 0
1 -1.99825 -3.07699 0
1 -0.285114 -2.17802 0
1 -1.38879 -2.11737 0
1 -0.971436 -1.10587 0
1 0.0121236 -1.1639 0
1 2.57332 -2.77976 0
1 1.17945 -1.1345 0
1 2.33398 -1.22553 0
1 3.63872 -2.89529 0
1 5.10973 -2.29254 0
1 6.68075 -1.15712 0
1 5.73331 -1.42716 0
1 7.37862 -2.23198 0
1 -5.9845 -1.11866 0
1 -6.41615 -2.21104 0
1 -5.81596 -3.07945 0
1 -4.88108 -2.72927 0
1 -3.81313 -3.6009 0
1 -2.47175 -2.18103 0
1 -3.7448 -2.41445 0
1 -2.88152 -0.427089 0
1 -2.10156 -1.25768 0
1 -0.530671 -0.104349 0
1 -1.63095 -0.240534 0
1 0.580755 -0.238578 0
1 1.68895 -0.262146 0
1 2.79978 -0.231352 0
1 3.68761 -0.863954 0
1 4.14921 -1.89631 0
1 4.71783 -0.982228 0
1 5.82255 -0.374875 0
1 -7.05517 -1.16795 0
1 7.08681 -0.190752 0
1 -6.73521 -0.224859 0
1 -6.62601 0.943284 0
1 -5.30835 -1.85908 0
1 -4.90352 -0.687841 0
1 -4.24693 -1.52984 0
1 -3.86351 -0.52164 0
1 -3.17899 -1.51169 0
1 -3.40609 0.56459 0
1 -2.28869 0.624386 0
1 -1.21225 0.752147 0
1 -0.134264 0.834588 0
1 0.995707 0.631709 0
1 2.06366 0.65856 0
1 3.2817 0.830367 0
1 4.12698 0.0877518 0
1 4.49793 1.28001 0
1 5.12188 0.397508 0
1 5.50853 1.54229 0
1 6.07901 0.693577 0
1 7.18564 0.820042 0
1 -7.26544 1.71344 0
1 -6.2977 1.99961 0
1 -5.72218 -0.00107919 0
1 -5.47505 1.0672 0
1 -4.42745 0.419254 0
1 -5.12532 2.43244 0
1 -4.5556 1.50447 0
1 -3.70561 2.43131 0
1 -3.05028 1.57765 0
1 -1.89556 1.65966 0
1 -0.616754 1.72375 0
1 1.44846 1.97652 0
1 2.61477 1.58231 0
1 2.95081 2.6331 0
1 3.66646 1.96859 0
1 3.94917 3.07534 0
1 4.64442 2.37874 0
1 5.72914 2.49098 0
1 6.56965 1.67479 0
1 6.70123 2.67622 0
1 -7.17987 2.82955 0
1 -6.91836 3.88355 0
1 -6.18444 3.13095 0
1 -3.6311 4.31234 0
1 -4.8398 4.4828 0
1 -5.08363 3.51856 0
1 -4.1344 3.3883 0
1 -2.48139 2.442 0
1 -1.29797 2.67329 0
1 -0.247211 2.81702 0
1 0.397751 1.87076 0
1 0.888538 3.04326 0
1 1.9432 2.94259 0
1 2.38238 4.18863 0
1 3.3712 3.8519 0
1 4.24866 4.31778 0
1 4.86055 3.43779 0
1 5.27386 4.44313 0
1 5.87077 3.53559 0
1 6.90265 3.70418 0
1 -6.30242 5.20474 0
1 -7.4438 4.81728 0
1 -5.40258 5.46026 0
1 -5.61044 7.36828 0
1 -5.83003 4.24411 0
1 -3.0422 3.37445 0
1 -2.03886 3.55516 0
1 -1.51748 4.59315 0
1 -0.924019 3.71478 0
1 -0.457723 4.74711 0
1 0.198169 3.8655 0
1 1.77227 5.06118 0
1 1.28345 3.95756 0
1 2.52589 5.9676 0
1 3.24409 4.95978 0
1 3.51838 6.0901 0
1 4.46742 5.33785 0
1 5.52622 5.45013 0
1 6.33224 4.63226 0
1 6.71472 5.61369 0
1 -7.10565 5.82251 0
1 -6.78549 6.8761 0
1 -6.06571 6.24707 0
1 -3.73013 6.28247 0
1 -5.00566 6.38197 0
1 -3.22097 5.32172 0
1 -2.58648 4.49104 0
1 -4.31526 5.3201 0
1 -2.02376 5.55815 0
1 0.117124 5.70338 0
1 0.618353 4.90113 0
1 1.10355 5.87915 0
1 1.62425 6.82659 0
1 2.11876 -6.98242 0
1 2.73872 7.05894 0
1 3.93257 -7.37904 0
1 4.55918 6.52177 0
1 4.95302 -7.43141 0
1 5.89487 6.30337 0
1 6.9859 6.64438 0
200
 Atoms. Timestep: 6000
1 7.37459 -7.23748 0
1 -6.03481 -5.85037 0
1 -4.31654 7.16731 0
1 -5.42714 -6.57796 0
1 -2.62674 6.5628 0
1 -2.19718 -7.38513 0
1 -1.44789 6.53109 0
1 -1.19464 -7.39065 0
1 -0.840893 5.65292 0
1 -0.385482 6.76048 0
1 0.74177 6.83892 0
1 0.139009 -6.14847 0
1 0.958243 -7.00219 0
1 1.20746 -5.84949 0
1 3.56946 -6.36991 0
1 2.43947 -5.83319 0
1 4.62997 -6.54423 0
1 5.62859 -6.47253 0
1 6.19752 -7.41076 0
1 5.90295 -5.42133 0
1 6.76967 -6.29609 0
1 7.11914 -5.31855 0
1 -6.99216 -6.07056 0
1 -5.75446 -4.78877 0
1 -3.22846 -7.38775 0
1 -4.01585 -5.50556 0
1 -1.99252 -6.32662 0
1 -1.7309 -5.19514 0
1 -0.176159 -7.12062 0
1 -1.33461 -4.21167 0
1 -0.865607 -6.33719 0
1 -0.699054 -5.16476 0
1 0.327896 -5.13502 0
1 -0.19015 -4.08946 0
1 1.75458 -4.98502 0
1 1.8971 -3.94762 0
1 3.34794 -5.35088 0
1 3.40577 -3.74932 0
1 4.87025 -5.58936 0
1 5.31392 -4.57056 0
1 6.29084 -4.32579 0
1 7.40638 -4.20446 0
1 -6.79385 -4.92346 0
1 -5.05006 -5.55867 0
1 -4.36403 -6.58665 0
1 -2.34148 -4.37004 0
1 -3.19796 -6.29867 0
1 -2.76776 -5.29708 0
1 -0.703865 -3.22738 0
1 0.864095 -2.10921 0
1 0.338727 -3.1508 0
1 1.87982 -1.96775 0
1 0.85255 -4.08911 0
1 1.40361 -3.0171 0
1 2.75087 -4.56587 0
1 2.90066 -1.85658 0
1 4.39993 -3.56493 0
1 4.29012 -4.73217 0
1 5.57303 -3.45836 0
1 5.98031 -2.47528 0
1 6.71268 -3.36702 0
1 -7.15035 -3.1398 0
1 -6.46941 -3.9567 0
1 -5.2488 -3.82165 0
1 -4.63536 -4.64988 0
1 -3.50411 -4.50767 0
1 -3.02596 -3.55021 0
1 -1.83827 -3.33619 0
1 -0.263185 -2.25411 0
1 -1.35736 -2.40706 0
1 -0.917543 -1.40195 0
1 0.147942 -1.14671 0
1 2.57199 -2.90349 0
1 1.33611 -1.07754 0
1 2.3418 -0.875254 0
1 3.74126 -2.61871 0
1 4.94937 -2.6215 0
1 6.52706 -1.49175 0
1 5.2253 -1.67164 0
1 7.30028 -2.21092 0
1 -6.06269 -0.829386 0
1 -6.46165 -1.85124 0
1 -5.8884 -3.00489 0
1 -4.82842 -2.79829 0
1 -4.0911 -3.7224 0
1 -2.51648 -2.44549 0
1 -3.6687 -2.69395 0
1 -2.86525 -0.553773 0
1 -1.96681 -1.59212 0
1 -0.566386 -0.457502 0
1 -1.65259 -0.647803 0
1 0.557344 -0.114127 0
1 1.7276 -0.0184613 0
1 2.77989 0.101909 0
1 3.32709 -0.775193 0
1 4.19546 -1.43106 0
1 4.66047 -0.467485 0
1 5.64548 -0.717681 0
1 -7.37705 -1.13226 0
1 6.69799 -0.531889 0
1 -6.918 -0.0706556 0
1 -6.53699 1.3286 0
1 -5.4258 -1.9677 0
1 -4.94621 -0.999704 0
1 -4.26276 -1.79156 0
1 -3.97765 -0.482925 0
1 -3.1689 -1.50914 0
1 -3.29751 0.404595 0
1 -2.21044 0.319401 0
1 -1.2196 0.458168 0
1 -0.142188 0.646898 0
1 0.908706 0.778027 0
1 2.06094 1.02254 0
1 3.06769 1.26322 0
1 3.79877 0.434279 0
1 4.1193 1.37853 0
1 4.94111 0.56712 0
1 5.22542 1.52149 0
1 5.87865 0.315695 0
1 7.05758 0.42896 0
1 7.37533 1.36723 0
1 -5.82071 2.31019 0
1 -5.82908 0.0701824 0
1 -5.42481 1.42117 0
1 -4.75407 0.38826 0
1 -4.7622 2.32907 0
1 -4.22858 1.30459 0
1 -3.75719 2.37127 0
1 -3.02427 1.51253 0
1 -1.97794 1.31367 0
1 -0.853834 1.47924 0
1 1.37522 1.77304 0
1 2.5304 2.16117 0
1 2.8199 3.27408 0
1 3.48937 2.32075 0
1 3.83862 3.45046 0
1 4.45162 2.3754 0
1 5.84185 2.363 0
1 6.22579 1.33351 0
1 6.9414 2.41947 0
1 -6.96719 2.31539 0
1 -7.05552 4.55368 0
1 -6.5712 3.43126 0
1 -3.65247 4.33419 0
1 -4.88805 4.21474 0
1 -5.44108 3.36295 0
1 -4.20591 3.32309 0
1 -2.77462 2.44393 0
1 -1.7407 2.28387 0
1 -0.548202 2.42634 0
1 0.266812 1.68111 0
1 0.78799 2.60818 0
1 1.75336 2.88694 0
1 1.91954 4.05585 0
1 3.19247 4.2851 0
1 4.48917 4.27781 0
1 5.02309 3.34536 0
1 5.63983 4.24319 0
1 6.2807 3.38419 0
1 7.35494 3.35077 0
1 -6.44491 5.44024 0
1 7.40698 5.52691 0
1 -5.33601 5.34293 0
1 -5.40461 7.29553 0
1 -5.99221 4.37838 0
1 -3.17837 3.39341 0
1 -2.05416 3.41512 0
1 -1.32783 4.37241 0
1 -1.11791 3.30394 0
1 -0.198886 4.73496 0
1 -0.0103243 3.31378 0
1 2.24105 4.99095 0
1 0.936441 3.7522 0
1 2.55426 6.3275 0
1 3.16227 5.3093 0
1 3.83815 6.32723 0
1 4.22268 5.27356 0
1 5.2184 5.2208 0
1 6.64349 4.50113 0
1 6.25386 5.46846 0
1 -7.04636 6.61942 0
1 -6.44338 -7.16283 0
1 -6.01983 6.34717 0
1 -3.6819 6.27914 0
1 -4.87498 6.23494 0
1 -3.24031 5.29169 0
1 -2.4346 4.36635 0
1 -4.31926 5.06539 0
1 -2.13529 5.54428 0
1 0.231875 5.67979 0
1 1.17717 4.91062 0
1 1.37122 5.88386 0
1 1.90856 7.07194 0
1 2.05754 -6.76539 0
1 2.89928 -7.3425 0
1 3.99025 -7.41245 0
1 4.92766 6.14227 0
1 5.07483 7.21496 0
1 5.8519 6.49479 0
1 6.89033 6.5273 0
200
 Atoms. Timestep: 7000
1 7.31967 -7.28589 0
1 -6.2597 -6.0866 0
1 -4.64889 7.26044 0
1 -5.46643 -6.77842 0
1 -2.96419 6.67155 0
1 -2.48505 -7.16058 0
1 -1.94909 6.90357 0
1 -1.46676 -7.10851 0
1 -0.977884 5.69999 0
1 -0.701665 6.99115 0
1 0.447534 6.95867 0
1 -0.0733786 -5.87028 0
1 0.70277 -6.93822 0
1 1.45005 -6.05203 0
1 3.20078 -6.84115 0
1 2.5436 -5.87187 0
1 4.30559 -6.70728 0
1 5.46352 -6.6105 0
1 6.22294 7.38764 0